 Entering Gaussian System, Link 0=g16
 Input=5-td.com
 Output=5-td.log
 Initial command:
 /work/lopez/g16/l1.exe "/scratch/adrion.d/2-3-reactivity-model/hemi-azoarene-calcs/pbe0-opts/tddft/Gau-41705.inp" -scrdir="/scratch/adrion.d/2-3-reactivity-model/hemi-azoarene-calcs/pbe0-opts/tddft/"
 Entering Link 1 = /work/lopez/g16/l1.exe PID=     41706.
  
 Copyright (c) 1988-2017, Gaussian, Inc.  All Rights Reserved.
  
 This is part of the Gaussian(R) 16 program.  It is based on
 the Gaussian(R) 09 system (copyright 2009, Gaussian, Inc.),
 the Gaussian(R) 03 system (copyright 2003, Gaussian, Inc.),
 the Gaussian(R) 98 system (copyright 1998, Gaussian, Inc.),
 the Gaussian(R) 94 system (copyright 1995, Gaussian, Inc.),
 the Gaussian 92(TM) system (copyright 1992, Gaussian, Inc.),
 the Gaussian 90(TM) system (copyright 1990, Gaussian, Inc.),
 the Gaussian 88(TM) system (copyright 1988, Gaussian, Inc.),
 the Gaussian 86(TM) system (copyright 1986, Carnegie Mellon
 University), and the Gaussian 82(TM) system (copyright 1983,
 Carnegie Mellon University). Gaussian is a federally registered
 trademark of Gaussian, Inc.
  
 This software contains proprietary and confidential information,
 including trade secrets, belonging to Gaussian, Inc.
  
 This software is provided under written license and may be
 used, copied, transmitted, or stored only in accord with that
 written license.
  
 The following legend is applicable only to US Government
 contracts under FAR:
  
                    RESTRICTED RIGHTS LEGEND
  
 Use, reproduction and disclosure by the US Government is
 subject to restrictions as set forth in subparagraphs (a)
 and (c) of the Commercial Computer Software - Restricted
 Rights clause in FAR 52.227-19.
  
 Gaussian, Inc.
 340 Quinnipiac St., Bldg. 40, Wallingford CT 06492
  
  
 ---------------------------------------------------------------
 Warning -- This program may not be used in any manner that
 competes with the business of Gaussian, Inc. or will provide
 assistance to any competitor of Gaussian, Inc.  The licensee
 of this program is prohibited from giving any competitor of
 Gaussian, Inc. access to this program.  By using this program,
 the user acknowledges that Gaussian, Inc. is engaged in the
 business of creating and licensing software in the field of
 computational chemistry and represents and warrants to the
 licensee that it is not a competitor of Gaussian, Inc. and that
 it will not use this program in any manner prohibited above.
 ---------------------------------------------------------------
  

 Cite this work as:
 Gaussian 16, Revision B.01,
 M. J. Frisch, G. W. Trucks, H. B. Schlegel, G. E. Scuseria, 
 M. A. Robb, J. R. Cheeseman, G. Scalmani, V. Barone, 
 G. A. Petersson, H. Nakatsuji, X. Li, M. Caricato, A. V. Marenich, 
 J. Bloino, B. G. Janesko, R. Gomperts, B. Mennucci, H. P. Hratchian, 
 J. V. Ortiz, A. F. Izmaylov, J. L. Sonnenberg, D. Williams-Young, 
 F. Ding, F. Lipparini, F. Egidi, J. Goings, B. Peng, A. Petrone, 
 T. Henderson, D. Ranasinghe, V. G. Zakrzewski, J. Gao, N. Rega, 
 G. Zheng, W. Liang, M. Hada, M. Ehara, K. Toyota, R. Fukuda, 
 J. Hasegawa, M. Ishida, T. Nakajima, Y. Honda, O. Kitao, H. Nakai, 
 T. Vreven, K. Throssell, J. A. Montgomery, Jr., J. E. Peralta, 
 F. Ogliaro, M. J. Bearpark, J. J. Heyd, E. N. Brothers, K. N. Kudin, 
 V. N. Staroverov, T. A. Keith, R. Kobayashi, J. Normand, 
 K. Raghavachari, A. P. Rendell, J. C. Burant, S. S. Iyengar, 
 J. Tomasi, M. Cossi, J. M. Millam, M. Klene, C. Adamo, R. Cammi, 
 J. W. Ochterski, R. L. Martin, K. Morokuma, O. Farkas, 
 J. B. Foresman, and D. J. Fox, Gaussian, Inc., Wallingford CT, 2016.
 
 ******************************************
 Gaussian 16:  ES64L-G16RevB.01 20-Dec-2017
                23-Aug-2021 
 ******************************************
 %chk=5-td.chk
 %nprocs=16
 Will use up to   16 processors via shared memory.
 %mem=80GB
 ----------------------------------------------------------------------
 # wB97XD/6-311+G(d,p) td=(Nstates=10) scrf=(iefpcm,solvent=water) form
 check 5-td
 ----------------------------------------------------------------------
 1/38=1,172=1/1;
 2/12=2,17=6,18=5,40=1/2;
 3/5=4,6=6,7=111,8=1,11=9,25=1,30=1,70=2201,72=1,74=-58/1,2,3,8;
 4//1;
 5/5=2,38=5,53=1/2;
 8/6=1,10=2,108=10/1;
 9/41=10,42=1/14;
 6/7=2,8=2,9=2,10=2/1;
 99/5=1,9=1/99;
 ----
 5-td
 ----
 Symbolic Z-matrix:
 Charge =  0 Multiplicity = 1
 N                    -0.18764  -0.66879  -0.00001 
 N                    -0.91296   0.36264   0. 
 C                    -2.2724    0.12758  -0.00001 
 C                    -3.13732   1.21328   0. 
 S                    -4.76708   0.66393  -0.00001 
 C                    -4.29736  -1.02481  -0.00003 
 C                    -2.94422  -1.14441  -0.00002 
 H                    -2.42373  -2.09415  -0.00003 
 C                    -5.33357  -2.09629  -0.00004 
 H                    -5.97729  -2.03369   0.88345 
 H                    -4.84663  -3.07427  -0.00004 
 H                    -5.97728  -2.03368  -0.88353 
 C                    -2.79238   2.66016   0.00001 
 H                    -3.19787   3.1644    0.88318 
 H                    -1.70699   2.77303   0.00002 
 H                    -3.19787   3.16442  -0.88314 
 C                     1.19537  -0.39765   0. 
 C                     1.753     0.89225   0.00002 
 C                     3.12708   1.04896   0.00002 
 C                     3.93741  -0.08833   0.00001 
 C                     3.40809  -1.37606   0. 
 C                     2.02947  -1.523    -0.00001 
 H                     1.57748  -2.50948  -0.00002 
 H                     4.06736  -2.23546  -0.00001 
 N                     5.38006   0.07809   0.00002 
 O                     5.83115   1.21795   0.00003 
 O                     6.07918  -0.9288    0.00002 
 H                     3.5799    2.03324   0.00003 
 H                     1.09842   1.75593   0.00002 
 
                          Input orientation:                          
 ---------------------------------------------------------------------
 Center     Atomic      Atomic             Coordinates (Angstroms)
 Number     Number       Type             X           Y           Z
 ---------------------------------------------------------------------
      1          7           0       -0.187640   -0.668790   -0.000010
      2          7           0       -0.912960    0.362640    0.000000
      3          6           0       -2.272400    0.127580   -0.000010
      4          6           0       -3.137320    1.213280    0.000000
      5         16           0       -4.767080    0.663930   -0.000010
      6          6           0       -4.297360   -1.024810   -0.000030
      7          6           0       -2.944220   -1.144410   -0.000020
      8          1           0       -2.423730   -2.094150   -0.000030
      9          6           0       -5.333570   -2.096290   -0.000040
     10          1           0       -5.977290   -2.033690    0.883450
     11          1           0       -4.846630   -3.074270   -0.000040
     12          1           0       -5.977280   -2.033680   -0.883530
     13          6           0       -2.792380    2.660160    0.000010
     14          1           0       -3.197870    3.164400    0.883180
     15          1           0       -1.706990    2.773030    0.000020
     16          1           0       -3.197870    3.164420   -0.883140
     17          6           0        1.195370   -0.397650    0.000000
     18          6           0        1.753000    0.892250    0.000020
     19          6           0        3.127080    1.048960    0.000020
     20          6           0        3.937410   -0.088330    0.000010
     21          6           0        3.408090   -1.376060    0.000000
     22          6           0        2.029470   -1.523000   -0.000010
     23          1           0        1.577480   -2.509480   -0.000020
     24          1           0        4.067360   -2.235460   -0.000010
     25          7           0        5.380060    0.078090    0.000020
     26          8           0        5.831150    1.217950    0.000030
     27          8           0        6.079180   -0.928800    0.000020
     28          1           0        3.579900    2.033240    0.000030
     29          1           0        1.098420    1.755930    0.000020
 ---------------------------------------------------------------------
                    Distance matrix (angstroms):
                    1          2          3          4          5
     1  N    0.000000
     2  N    1.260927   0.000000
     3  C    2.231688   1.379612   0.000000
     4  C    3.498971   2.381463   1.388103   0.000000
     5  S    4.769425   3.865879   2.551686   1.719856   0.000000
     6  C    4.125112   3.657756   2.329907   2.520861   1.752849
     7  C    2.797311   2.529272   1.438506   2.365584   2.567667
     8  H    2.651745   2.884136   2.226878   3.383534   3.619157
     9  C    5.340258   5.058471   3.783697   3.971998   2.817752
    10  H    6.013610   5.671889   4.379246   4.403263   3.085817
    11  H    5.243331   5.223611   4.108346   4.615715   3.739046
    12  H    6.013607   5.671888   4.379245   4.403266   3.085821
    13  C    4.226888   2.968302   2.585409   1.487429   2.807913
    14  H    4.953267   3.721650   3.295269   2.142555   3.081362
    15  H    3.762253   2.537807   2.705198   2.116285   3.716511
    16  H    4.953272   3.721656   3.295271   2.142557   3.081362
    17  C    1.409338   2.241227   3.507320   4.622477   6.056217
    18  C    2.490568   2.718056   4.097385   4.900846   6.524076
    19  C    3.733368   4.097921   5.477529   6.266555   7.903544
    20  C    4.165690   4.871290   6.213562   7.193469   8.736935
    21  C    3.664629   4.657741   5.876130   7.038968   8.425851
    22  C    2.375974   3.494786   4.607657   5.846618   7.139731
    23  H    2.550253   3.801495   4.666440   6.007352   7.093939
    24  H    4.534256   5.617269   6.765834   7.987567   9.298053
    25  N    5.617572   6.299450   7.652620   8.592696  10.164038
    26  O    6.307584   6.798130   8.176578   8.968471  10.612701
    27  O    6.272212   7.110404   8.418125   9.462155  10.962579
    28  H    4.636305   4.793401   6.154751   6.767081   8.458551
    29  H    2.744671   2.446816   3.743521   4.270359   5.966285
                    6          7          8          9         10
     6  C    0.000000
     7  C    1.358415   0.000000
     8  H    2.157308   1.083012   0.000000
     9  C    1.490571   2.571978   2.909841   0.000000
    10  H    2.149544   3.281898   3.662237   1.094920   0.000000
    11  H    2.121788   2.709894   2.613633   1.092500   1.772499
    12  H    2.149540   3.281896   3.662232   1.094914   1.766980
    13  C    3.980448   3.807599   4.768581   5.392723   5.740762
    14  H    4.420228   4.405704   5.388107   5.745968   5.894516
    15  H    4.597130   4.108172   4.919670   6.071438   6.490028
    16  H    4.420227   4.405707   5.388110   5.745968   6.153565
    17  C    5.528419   4.206407   3.996999   6.746290   7.409734
    18  C    6.346808   5.119752   5.134555   7.690959   8.312578
    19  C    7.708621   6.455351   6.378921   9.026361   9.652602
    20  C    8.287848   6.962193   6.669889   9.485936  10.142296
    21  C    7.713452   6.356532   5.875864   8.771280   9.449779
    22  C    6.346414   4.988078   4.489677   7.385325   8.071525
    23  H    6.059537   4.723260   4.022708   6.923391   7.621118
    24  H    8.451876   7.095960   6.492628   9.401960  10.085445
    25  N    9.740064   8.413569   8.100479  10.932054  11.585744
    26  O   10.373846   9.087786   8.894552  11.646251  12.279774
    27  O   10.376984   9.025976   8.582396  11.472310  12.139180
    28  H    8.450023   7.256831   7.285528   9.823592  10.424022
    29  H    6.070169   4.975431   5.218109   7.497339   8.075106
                   11         12         13         14         15
    11  H    0.000000
    12  H    1.772499   0.000000
    13  C    6.091275   5.740763   0.000000
    14  H    6.513025   6.153570   1.094838   0.000000
    15  H    6.636886   6.490031   1.091243   1.776476   0.000000
    16  H    6.513028   5.894520   1.094831   1.766320   1.776480
    17  C    6.608333   7.409732   5.025172   5.724401   4.298477
    18  C    7.699896   8.312578   4.877088   5.518492   3.938130
    19  C    8.976696   9.652601   6.134816   6.727559   5.132314
    20  C    9.277672  10.142293   7.269406   7.891290   6.328241
    21  C    8.427593   9.449776   7.398439   8.064397   6.586273
    22  C    7.048914   8.071521   6.383499   7.076498   5.693594
    23  H    6.448890   7.621114   6.769110   7.468395   6.220342
    24  H    8.953369  10.085441   8.427522   9.095168   7.643827
    25  N   10.701521  11.585741   8.570639   9.158939   7.582149
    26  O   11.508177  12.279772   8.743297   9.278568   7.696871
    27  O   11.134467  12.139178   9.570016  10.178306   8.621368
    28  H    9.853581  10.424021   6.403045   6.928033   5.338398
    29  H    7.659925   8.075106   3.994491   4.606720   2.984094
                   16         17         18         19         20
    16  H    0.000000
    17  C    5.724407   0.000000
    18  C    5.518500   1.405273   0.000000
    19  C    6.727565   2.413335   1.382987   0.000000
    20  C    7.891296   2.759432   2.394407   1.396447   0.000000
    21  C    8.064403   2.419383   2.807945   2.441247   1.392274
    22  C    7.076504   1.400762   2.431022   2.796377   2.387156
    23  H    7.468401   2.146121   3.406255   3.881205   3.381011
    24  H    9.095174   3.409673   3.890865   3.416364   2.151059
    25  N    9.158946   4.211646   3.717314   2.453265   1.452217
    26  O    9.278574   4.909238   4.091135   2.709345   2.300569
    27  O   10.178314   4.912608   4.693832   3.553369   2.300776
    28  H    6.928039   3.405174   2.153932   1.083445   2.151482
    29  H    4.606726   2.155761   1.083706   2.148317   3.385433
                   21         22         23         24         25
    21  C    0.000000
    22  C    1.386429   0.000000
    23  H    2.153085   1.085098   0.000000
    24  H    1.083146   2.158841   2.504913   0.000000
    25  N    2.450147   3.713481   4.599471   2.660018   0.000000
    26  O    3.549663   4.686745   5.655744   3.877757   1.225872
    27  O    2.708277   4.093070   4.771148   2.398912   1.225804
    28  H    3.413626   3.879520   4.964473   4.296442   2.657666
    29  H    3.891521   3.408553   4.292228   4.974515   4.598651
                   26         27         28         29
    26  O    0.000000
    27  O    2.161031   0.000000
    28  H    2.394332   3.875575   0.000000
    29  H    4.763209   5.658246   2.496927   0.000000
 Stoichiometry    C12H11N3O2S
 Framework group  C1[X(C12H11N3O2S)]
 Deg. of freedom    81
 Full point group                 C1      NOp   1
 Largest Abelian subgroup         C1      NOp   1
 Largest concise Abelian subgroup C1      NOp   1
                         Standard orientation:                         
 ---------------------------------------------------------------------
 Center     Atomic      Atomic             Coordinates (Angstroms)
 Number     Number       Type             X           Y           Z
 ---------------------------------------------------------------------
      1          7           0        0.187641   -0.668790    0.000010
      2          7           0        0.912961    0.362639   -0.000000
      3          6           0        2.272401    0.127579    0.000010
      4          6           0        3.137321    1.213279   -0.000000
      5         16           0        4.767081    0.663928    0.000010
      6          6           0        4.297360   -1.024812    0.000030
      7          6           0        2.944220   -1.144411    0.000020
      8          1           0        2.423730   -2.094151    0.000030
      9          6           0        5.333570   -2.096292    0.000040
     10          1           0        5.977290   -2.033692   -0.883450
     11          1           0        4.846630   -3.074272    0.000040
     12          1           0        5.977280   -2.033682    0.883530
     13          6           0        2.792382    2.660159   -0.000010
     14          1           0        3.197872    3.164399   -0.883180
     15          1           0        1.706992    2.773029   -0.000020
     16          1           0        3.197872    3.164419    0.883140
     17          6           0       -1.195369   -0.397650   -0.000000
     18          6           0       -1.752999    0.892250   -0.000020
     19          6           0       -3.127079    1.048961   -0.000020
     20          6           0       -3.937409   -0.088329   -0.000010
     21          6           0       -3.408090   -1.376059   -0.000000
     22          6           0       -2.029470   -1.523000    0.000010
     23          1           0       -1.577480   -2.509480    0.000020
     24          1           0       -4.067360   -2.235459    0.000010
     25          7           0       -5.380059    0.078092   -0.000020
     26          8           0       -5.831149    1.217952   -0.000030
     27          8           0       -6.079180   -0.928798   -0.000020
     28          1           0       -3.579899    2.033241   -0.000030
     29          1           0       -1.098419    1.755930   -0.000020
 ---------------------------------------------------------------------
 Rotational constants (GHZ):           1.2928937           0.1287110           0.1172284
 Standard basis: 6-311+G(d,p) (5D, 7F)
 There are   488 symmetry adapted cartesian basis functions of A   symmetry.
 There are   470 symmetry adapted basis functions of A   symmetry.
   470 basis functions,   750 primitive gaussians,   488 cartesian basis functions
    68 alpha electrons       68 beta electrons
       nuclear repulsion energy      1285.2539548423 Hartrees.
 NAtoms=   29 NActive=   29 NUniq=   29 SFac= 1.00D+00 NAtFMM=   60 NAOKFM=F Big=F
 Integral buffers will be    131072 words long.
 Raffenetti 1 integral format.
 Two-electron integral symmetry is turned on.
 Nuclear repulsion after empirical dispersion term =     1285.2384090104 Hartrees.
 ------------------------------------------------------------------------------
 Polarizable Continuum Model (PCM)
 =================================
 Model                : PCM.
 Atomic radii         : UFF (Universal Force Field).
 Polarization charges : Total charges.
 Charge compensation  : None.
 Solution method      : On-the-fly selection.
 Cavity type          : Scaled VdW (van der Waals Surface) (Alpha=1.100).
 Cavity algorithm     : GePol (No added spheres)
                        Default sphere list used, NSphG=   29.
                        Lebedev-Laikov grids with approx.  5.0 points / Ang**2.
                        Smoothing algorithm: York/Karplus (Gamma=1.0000).
                        Polarization charges: spherical gaussians, with
                                              point-specific exponents (IZeta= 3).
                        Self-potential: point-specific (ISelfS= 7).
                        Self-field    : sphere-specific E.n sum rule (ISelfD= 2).
 Solvent              : Water, Eps=  78.355300 Eps(inf)=   1.777849
 ------------------------------------------------------------------------------
 One-electron integrals computed using PRISM.
 NBasis=   470 RedAO= T EigKep=  1.15D-06  NBF=   470
 NBsUse=   469 1.00D-06 EigRej=  9.05D-07 NBFU=   469
 ExpMin= 4.05D-02 ExpMax= 9.34D+04 ExpMxC= 3.17D+03 IAcc=3 IRadAn=         5 AccDes= 0.00D+00
 Harris functional with IExCor= 4639 and IRadAn=       5 diagonalized for initial guess.
 HarFok:  IExCor= 4639 AccDes= 0.00D+00 IRadAn=         5 IDoV= 1 UseB2=F ITyADJ=14
 ICtDFT=  3500011 ScaDFX=  1.000000  1.000000  1.000000  1.000000
 FoFCou: FMM=F IPFlag=           0 FMFlag=      100000 FMFlg1=           0
         NFxFlg=           0 DoJE=T BraDBF=F KetDBF=T FulRan=T
         wScrn=  0.000000 ICntrl=       500 IOpCl=  0 I1Cent=   200000004 NGrid=           0
         NMat0=    1 NMatS0=      1 NMatT0=    0 NMatD0=    1 NMtDS0=    0 NMtDT0=    0
 Petite list used in FoFCou.
 Requested convergence on RMS density matrix=1.00D-08 within 128 cycles.
 Requested convergence on MAX density matrix=1.00D-06.
 Requested convergence on             energy=1.00D-06.
 No special actions if energy rises.
 Inv3:  Mode=1 IEnd=    19599408.
 Iteration    1 A*A^-1 deviation from unit magnitude is 5.66D-15 for   1235.
 Iteration    1 A*A^-1 deviation from orthogonality  is 2.44D-15 for   1677   1402.
 Iteration    1 A^-1*A deviation from unit magnitude is 5.22D-15 for   2553.
 Iteration    1 A^-1*A deviation from orthogonality  is 1.79D-15 for   1526     81.
 Error on total polarization charges =  0.01700
 SCF Done:  E(RwB97XD) =  -1176.60577039     A.U. after   19 cycles
            NFock= 19  Conv=0.38D-08     -V/T= 2.0030
 DoSCS=F DFT=T ScalE2(SS,OS)=  1.000000  1.000000
 ExpMin= 4.05D-02 ExpMax= 9.34D+04 ExpMxC= 3.17D+03 IAcc=3 IRadAn=         5 AccDes= 0.00D+00
 HarFok:  IExCor=  205 AccDes= 0.00D+00 IRadAn=         5 IDoV=-2 UseB2=F ITyADJ=14
 ICtDFT= 12500011 ScaDFX=  1.000000  1.000000  1.000000  1.000000
 GSVD:  LWork=        -660 too small for GESVD, short by        2750 words or        2750 for optimal perf.
 Range of M.O.s used for correlation:    23   469
 NBasis=   470 NAE=    68 NBE=    68 NFC=    22 NFV=     0
 NROrb=    447 NOA=    46 NOB=    46 NVA=   401 NVB=   401

 **** Warning!!: The largest alpha MO coefficient is  0.22979214D+03

 NEqPCM:  Using non-equilibrium solvation (IEInf=1, Eps=  78.3553, EpsInf=   1.7778)
 Inv3:  Mode=1 IEnd=    19599408.
 Iteration    1 A*A^-1 deviation from unit magnitude is 1.15D-14 for    762.
 Iteration    1 A*A^-1 deviation from orthogonality  is 3.18D-15 for   2136    762.
 Iteration    1 A^-1*A deviation from unit magnitude is 8.66D-15 for    762.
 Iteration    1 A^-1*A deviation from orthogonality  is 1.96D-15 for   1512    509.
 Orbital symmetries:
       Occupied  (A) (A) (A) (A) (A) (A) (A) (A) (A) (A) (A) (A)
                 (A) (A) (A) (A) (A) (A) (A) (A) (A) (A) (A) (A)
                 (A) (A) (A) (A) (A) (A) (A) (A) (A) (A) (A) (A)
                 (A) (A) (A) (A) (A) (A) (A) (A) (A) (A) (A) (A)
                 (A) (A) (A) (A) (A) (A) (A) (A) (A) (A) (A) (A)
                 (A) (A) (A) (A) (A) (A) (A) (A)
       Virtual   (A) (A) (A) (A) (A) (A) (A) (A) (A) (A) (A) (A)
                 (A) (A) (A) (A) (A) (A) (A) (A) (A) (A) (A) (A)
                 (A) (A) (A) (A) (A) (A) (A) (A) (A) (A) (A) (A)
                 (A) (A) (A) (A) (A) (A) (A) (A) (A) (A) (A) (A)
                 (A) (A) (A) (A) (A) (A) (A) (A) (A) (A) (A) (A)
                 (A) (A) (A) (A) (A) (A) (A) (A) (A) (A) (A) (A)
                 (A) (A) (A) (A) (A) (A) (A) (A) (A) (A) (A) (A)
                 (A) (A) (A) (A) (A) (A) (A) (A) (A) (A) (A) (A)
                 (A) (A) (A) (A) (A) (A) (A) (A) (A) (A) (A) (A)
                 (A) (A) (A) (A) (A) (A) (A) (A) (A) (A) (A) (A)
                 (A) (A) (A) (A) (A) (A) (A) (A) (A) (A) (A) (A)
                 (A) (A) (A) (A) (A) (A) (A) (A) (A) (A) (A) (A)
                 (A) (A) (A) (A) (A) (A) (A) (A) (A) (A) (A) (A)
                 (A) (A) (A) (A) (A) (A) (A) (A) (A) (A) (A) (A)
                 (A) (A) (A) (A) (A) (A) (A) (A) (A) (A) (A) (A)
                 (A) (A) (A) (A) (A) (A) (A) (A) (A) (A) (A) (A)
                 (A) (A) (A) (A) (A) (A) (A) (A) (A) (A) (A) (A)
                 (A) (A) (A) (A) (A) (A) (A) (A) (A) (A) (A) (A)
                 (A) (A) (A) (A) (A) (A) (A) (A) (A) (A) (A) (A)
                 (A) (A) (A) (A) (A) (A) (A) (A) (A) (A) (A) (A)
                 (A) (A) (A) (A) (A) (A) (A) (A) (A) (A) (A) (A)
                 (A) (A) (A) (A) (A) (A) (A) (A) (A) (A) (A) (A)
                 (A) (A) (A) (A) (A) (A) (A) (A) (A) (A) (A) (A)
                 (A) (A) (A) (A) (A) (A) (A) (A) (A) (A) (A) (A)
                 (A) (A) (A) (A) (A) (A) (A) (A) (A) (A) (A) (A)
                 (A) (A) (A) (A) (A) (A) (A) (A) (A) (A) (A) (A)
                 (A) (A) (A) (A) (A) (A) (A) (A) (A) (A) (A) (A)
                 (A) (A) (A) (A) (A) (A) (A) (A) (A) (A) (A) (A)
                 (A) (A) (A) (A) (A) (A) (A) (A) (A) (A) (A) (A)
                 (A) (A) (A) (A) (A) (A) (A) (A) (A) (A) (A) (A)
                 (A) (A) (A) (A) (A) (A) (A) (A) (A) (A) (A) (A)
                 (A) (A) (A) (A) (A) (A) (A) (A) (A) (A) (A) (A)
                 (A) (A) (A) (A) (A) (A) (A) (A) (A) (A) (A) (A)
                 (A) (A) (A) (A) (A)
    40 initial guesses have been made.
 Convergence on wavefunction:    0.001000000000000
 Iteration     1 Dimension    40 NMult     0 NNew     40
 CISAX will form    40 AO SS matrices at one time.
 New state      1 was old state      3
 New state      2 was old state      1
 New state      3 was old state     10
 New state      4 was old state      2
 New state      6 was old state      4
 New state      7 was old state      8
 New state      8 was old state     15
 New state      9 was old state      6
 New state     10 was old state     12
 Iteration     2 Dimension    80 NMult    40 NNew     40
 New state      6 was old state      8
 New state      7 was old state      6
 New state      8 was old state      7
 New state     10 was old state     14
 Iteration     3 Dimension    90 NMult    80 NNew     10
 Iteration     4 Dimension   100 NMult    90 NNew     10
 Iteration     5 Dimension   109 NMult   100 NNew      9
 Iteration     6 Dimension   115 NMult   109 NNew      6
 ***********************************************************************
 Excited states from <AA,BB:AA,BB> singles matrix:
 ***********************************************************************
 
 Ground to excited state transition densities written to RWF  633
 Ground to excited state transition electric dipole moments (Au):
       state          X           Y           Z        Dip. S.      Osc.
         1         0.0000      0.0000      0.0215      0.0005      0.0000
         2        -3.7903     -0.5137     -0.0000     14.6303      1.2753
         3         0.0000      0.0000     -0.0013      0.0000      0.0000
         4         1.1864     -0.3370      0.0000      1.5212      0.1549
         5        -0.1273     -0.5475      0.0000      0.3159      0.0342
         6         0.0000      0.0000     -0.0544      0.0030      0.0003
         7        -0.0136      0.3727     -0.0000      0.1391      0.0169
         8         0.0000     -0.0000      0.0413      0.0017      0.0002
         9        -0.4400      0.2821     -0.0000      0.2732      0.0363
        10         0.3885     -1.1623      0.0000      1.5018      0.2095
 Ground to excited state transition velocity dipole moments (Au):
       state          X           Y           Z        Dip. S.      Osc.
         1        -0.0000     -0.0000      0.0111      0.0001      0.0008
         2         0.3171     -0.0403     -0.0000      0.1022      0.5209
         3        -0.0000     -0.0000     -0.0002      0.0000      0.0000
         4        -0.1164      0.0099      0.0000      0.0136      0.0595
         5         0.0081     -0.0134      0.0000      0.0002      0.0010
         6        -0.0000     -0.0000      0.0229      0.0005      0.0021
         7        -0.0142      0.0112      0.0000      0.0003      0.0012
         8        -0.0000     -0.0000      0.0084      0.0001      0.0002
         9         0.0855     -0.0180     -0.0000      0.0076      0.0256
        10        -0.0586      0.0855     -0.0000      0.0107      0.0342
 Ground to excited state transition magnetic dipole moments (Au):
       state          X           Y           Z
         1        -0.6749     -0.3725      0.0000
         2        -0.0000     -0.0000      0.0678
         3         0.6025     -0.0620      0.0000
         4         0.0000     -0.0000      0.1983
         5        -0.0000      0.0000      0.1982
         6         0.0783      1.1917      0.0000
         7         0.0000      0.0000      0.3110
         8         0.3535      0.2916      0.0000
         9        -0.0000     -0.0000      0.5382
        10         0.0000      0.0000     -0.0005
 Ground to excited state transition velocity quadrupole moments (Au):
       state          XX          YY          ZZ          XY          XZ          YZ
         1        -0.0000     -0.0000     -0.0000     -0.0000      0.0265      0.0289
         2        -0.4504      0.5272      0.0471     -0.2088      0.0000     -0.0000
         3         0.0000      0.0000     -0.0000      0.0000      0.0061      0.0333
         4         0.2155      0.1080     -0.0280     -0.0113      0.0000     -0.0000
         5         0.0462     -0.0225      0.0048     -0.0124     -0.0000     -0.0000
         6         0.0000     -0.0000     -0.0000      0.0000     -0.2593      0.0038
         7        -0.9542      0.0434      0.0169      0.1685      0.0000      0.0000
         8         0.0000     -0.0000     -0.0000      0.0000     -0.0116      0.0202
         9        -0.1647      0.0900      0.0077     -0.0033      0.0000     -0.0000
        10        -1.2478      0.0540      0.0293      0.9164     -0.0000      0.0000
 <0|del|b> * <b|rxdel|0> + <0|del|b> * <b|delr+rdel|0>
 Rotatory Strengths (R) in cgs (10**-40 erg-esu-cm/Gauss)
       state          XX          YY          ZZ    R(velocity)    E-M Angle
         1         0.0016      0.0046      0.0060      0.0040       90.00
         2         0.0011     -0.0144      0.0070     -0.0021       90.00
         3         0.0003     -0.0020     -0.0015     -0.0011       90.00
         4         0.0002     -0.0007     -0.0018     -0.0008       90.00
         5         0.0002      0.0009      0.0001      0.0004       90.00
         6        -0.0090     -0.0008     -0.0085     -0.0061       90.00
         7         0.0002     -0.0002     -0.0001     -0.0000       90.00
         8        -0.0000     -0.0015     -0.0014     -0.0010       90.00
         9         0.0004     -0.0014     -0.0013     -0.0008       90.00
        10         0.0030      0.0023     -0.0018      0.0012       90.00
 1/2[<0|r|b>*<b|rxdel|0> + (<0|rxdel|b>*<b|r|0>)*]
 Rotatory Strengths (R) in cgs (10**-40 erg-esu-cm/Gauss)
       state          XX          YY          ZZ     R(length)
         1         0.0101      0.0020     -0.0001      0.0040
         2        -0.0122     -0.0026      0.0002     -0.0049
         3        -0.0007      0.0002      0.0000     -0.0002
         4        -0.0047     -0.0006     -0.0004     -0.0019
         5        -0.0000      0.0036     -0.0003      0.0011
         6        -0.0001     -0.0075      0.0013     -0.0021
         7         0.0001     -0.0002      0.0017      0.0005
         8        -0.0022      0.0000     -0.0001     -0.0007
         9        -0.0021      0.0007      0.0026      0.0004
        10        -0.0029      0.0159      0.0000      0.0043
  1/2[<0|del|b>*<b|r|0> + (<0|r|b>*<b|del|0>)*] (Au)
       state          X           Y           Z        Dip. S.   Osc.(frdel)
         1        -0.0000     -0.0000      0.0002     -0.0002     -0.0002
         2        -1.2019      0.0207      0.0000      1.1812      0.7874
         3        -0.0000     -0.0000      0.0000     -0.0000     -0.0000
         4        -0.1381     -0.0033      0.0000      0.1414      0.0943
         5        -0.0010      0.0073      0.0000     -0.0063     -0.0042
         6        -0.0000     -0.0000     -0.0012      0.0012      0.0008
         7         0.0002      0.0042     -0.0000     -0.0044     -0.0029
         8        -0.0000      0.0000      0.0003     -0.0003     -0.0002
         9        -0.0376     -0.0051      0.0000      0.0427      0.0285
        10        -0.0228     -0.0993     -0.0000      0.1221      0.0814

 Excitation energies and oscillator strengths:
 
 Excited State   1:      Singlet-A      2.7901 eV  444.38 nm  f=0.0000  <S**2>=0.000
      66 -> 69         0.58562
      66 -> 70        -0.37562
 This state for optimization and/or second-order correction.
 Total Energy, E(CIS/TDA) =  -1176.50323792    
 Copying the excited state density for this state as the 1-particle RhoCI density.
 
 Excited State   2:      Singlet-A      3.5580 eV  348.47 nm  f=1.2753  <S**2>=0.000
      64 -> 69         0.10473
      67 -> 69        -0.11771
      68 -> 69         0.64507
      68 -> 70        -0.18721
 
 Excited State   3:      Singlet-A      3.9260 eV  315.80 nm  f=0.0000  <S**2>=0.000
      63 -> 69         0.56909
      63 -> 70         0.39764
      63 -> 77        -0.10079
 
 Excited State   4:      Singlet-A      4.1569 eV  298.26 nm  f=0.1549  <S**2>=0.000
      67 -> 69         0.60060
      67 -> 70        -0.31197
      68 -> 70        -0.11164
 
 Excited State   5:      Singlet-A      4.4120 eV  281.01 nm  f=0.0342  <S**2>=0.000
      64 -> 71         0.14984
      65 -> 69         0.65013
      68 -> 71         0.15846
 
 Excited State   6:      Singlet-A      4.5469 eV  272.68 nm  f=0.0003  <S**2>=0.000
      61 -> 69         0.56761
      61 -> 70         0.38825
 
 Excited State   7:      Singlet-A      4.9481 eV  250.57 nm  f=0.0169  <S**2>=0.000
      64 -> 69         0.32455
      64 -> 70         0.13786
      67 -> 70        -0.23189
      68 -> 70         0.52006
 
 Excited State   8:      Singlet-A      5.2542 eV  235.97 nm  f=0.0002  <S**2>=0.000
      66 -> 69         0.35974
      66 -> 70         0.52954
      66 -> 77         0.23372
 
 Excited State   9:      Singlet-A      5.4190 eV  228.80 nm  f=0.0363  <S**2>=0.000
      64 -> 69         0.53442
      64 -> 70        -0.19389
      68 -> 69        -0.16655
      68 -> 70        -0.28134
      68 -> 71         0.12639
 
 Excited State  10:      Singlet-A      5.6931 eV  217.78 nm  f=0.2095  <S**2>=0.000
      64 -> 69         0.11154
      64 -> 72        -0.12092
      65 -> 70         0.16431
      68 -> 70        -0.10283
      68 -> 71        -0.32251
      68 -> 72         0.53552
 SavETr:  write IOETrn=   770 NScale= 10 NData=  16 NLR=1 NState=   10 LETran=     190.

 **********************************************************************

            Population analysis using the SCF Density.

 **********************************************************************

 Orbital symmetries:
       Occupied  (A) (A) (A) (A) (A) (A) (A) (A) (A) (A) (A) (A)
                 (A) (A) (A) (A) (A) (A) (A) (A) (A) (A) (A) (A)
                 (A) (A) (A) (A) (A) (A) (A) (A) (A) (A) (A) (A)
                 (A) (A) (A) (A) (A) (A) (A) (A) (A) (A) (A) (A)
                 (A) (A) (A) (A) (A) (A) (A) (A) (A) (A) (A) (A)
                 (A) (A) (A) (A) (A) (A) (A) (A)
       Virtual   (A) (A) (A) (A) (A) (A) (A) (A) (A) (A) (A) (A)
                 (A) (A) (A) (A) (A) (A) (A) (A) (A) (A) (A) (A)
                 (A) (A) (A) (A) (A) (A) (A) (A) (A) (A) (A) (A)
                 (A) (A) (A) (A) (A) (A) (A) (A) (A) (A) (A) (A)
                 (A) (A) (A) (A) (A) (A) (A) (A) (A) (A) (A) (A)
                 (A) (A) (A) (A) (A) (A) (A) (A) (A) (A) (A) (A)
                 (A) (A) (A) (A) (A) (A) (A) (A) (A) (A) (A) (A)
                 (A) (A) (A) (A) (A) (A) (A) (A) (A) (A) (A) (A)
                 (A) (A) (A) (A) (A) (A) (A) (A) (A) (A) (A) (A)
                 (A) (A) (A) (A) (A) (A) (A) (A) (A) (A) (A) (A)
                 (A) (A) (A) (A) (A) (A) (A) (A) (A) (A) (A) (A)
                 (A) (A) (A) (A) (A) (A) (A) (A) (A) (A) (A) (A)
                 (A) (A) (A) (A) (A) (A) (A) (A) (A) (A) (A) (A)
                 (A) (A) (A) (A) (A) (A) (A) (A) (A) (A) (A) (A)
                 (A) (A) (A) (A) (A) (A) (A) (A) (A) (A) (A) (A)
                 (A) (A) (A) (A) (A) (A) (A) (A) (A) (A) (A) (A)
                 (A) (A) (A) (A) (A) (A) (A) (A) (A) (A) (A) (A)
                 (A) (A) (A) (A) (A) (A) (A) (A) (A) (A) (A) (A)
                 (A) (A) (A) (A) (A) (A) (A) (A) (A) (A) (A) (A)
                 (A) (A) (A) (A) (A) (A) (A) (A) (A) (A) (A) (A)
                 (A) (A) (A) (A) (A) (A) (A) (A) (A) (A) (A) (A)
                 (A) (A) (A) (A) (A) (A) (A) (A) (A) (A) (A) (A)
                 (A) (A) (A) (A) (A) (A) (A) (A) (A) (A) (A) (A)
                 (A) (A) (A) (A) (A) (A) (A) (A) (A) (A) (A) (A)
                 (A) (A) (A) (A) (A) (A) (A) (A) (A) (A) (A) (A)
                 (A) (A) (A) (A) (A) (A) (A) (A) (A) (A) (A) (A)
                 (A) (A) (A) (A) (A) (A) (A) (A) (A) (A) (A) (A)
                 (A) (A) (A) (A) (A) (A) (A) (A) (A) (A) (A) (A)
                 (A) (A) (A) (A) (A) (A) (A) (A) (A) (A) (A) (A)
                 (A) (A) (A) (A) (A) (A) (A) (A) (A) (A) (A) (A)
                 (A) (A) (A) (A) (A) (A) (A) (A) (A) (A) (A) (A)
                 (A) (A) (A) (A) (A) (A) (A) (A) (A) (A) (A) (A)
                 (A) (A) (A) (A) (A) (A) (A) (A) (A) (A) (A) (A)
                 (A) (A) (A) (A) (A)
 The electronic state is 1-A.
 Alpha  occ. eigenvalues --  -89.05454 -19.30028 -19.30019 -14.69660 -14.50199
 Alpha  occ. eigenvalues --  -14.49144 -10.36338 -10.34880 -10.34550 -10.33406
 Alpha  occ. eigenvalues --  -10.32845 -10.32574 -10.32551 -10.31618 -10.31535
 Alpha  occ. eigenvalues --  -10.29623 -10.29375 -10.29215  -8.09569  -6.04388
 Alpha  occ. eigenvalues --   -6.04006  -6.03686  -1.36014  -1.18028  -1.15872
 Alpha  occ. eigenvalues --   -1.01446  -1.00220  -0.94488  -0.90137  -0.88355
 Alpha  occ. eigenvalues --   -0.87962  -0.83315  -0.82248  -0.78433  -0.74549
 Alpha  occ. eigenvalues --   -0.73285  -0.69295  -0.67314  -0.65633  -0.65110
 Alpha  occ. eigenvalues --   -0.64052  -0.62601  -0.60966  -0.58251  -0.55925
 Alpha  occ. eigenvalues --   -0.55090  -0.55044  -0.54065  -0.52531  -0.52430
 Alpha  occ. eigenvalues --   -0.51723  -0.51344  -0.49825  -0.49189  -0.48318
 Alpha  occ. eigenvalues --   -0.46835  -0.45549  -0.44766  -0.44419  -0.43112
 Alpha  occ. eigenvalues --   -0.42251  -0.41858  -0.40229  -0.37605  -0.36342
 Alpha  occ. eigenvalues --   -0.33619  -0.33176  -0.30253
 Alpha virt. eigenvalues --   -0.06101  -0.01178   0.03013   0.04510   0.05775
 Alpha virt. eigenvalues --    0.06759   0.06894   0.07515   0.07806   0.08556
 Alpha virt. eigenvalues --    0.08788   0.09047   0.09344   0.10100   0.10369
 Alpha virt. eigenvalues --    0.10883   0.11034   0.11791   0.12410   0.12947
 Alpha virt. eigenvalues --    0.13000   0.13693   0.13947   0.14266   0.15460
 Alpha virt. eigenvalues --    0.15539   0.15786   0.16063   0.16618   0.16916
 Alpha virt. eigenvalues --    0.17624   0.17747   0.18012   0.18858   0.19047
 Alpha virt. eigenvalues --    0.19183   0.19999   0.20378   0.20453   0.21132
 Alpha virt. eigenvalues --    0.21846   0.21876   0.21971   0.22164   0.22222
 Alpha virt. eigenvalues --    0.22782   0.23116   0.23638   0.24179   0.24608
 Alpha virt. eigenvalues --    0.24880   0.25288   0.25397   0.25855   0.26256
 Alpha virt. eigenvalues --    0.26570   0.26584   0.26874   0.27250   0.27959
 Alpha virt. eigenvalues --    0.28412   0.29011   0.29178   0.29643   0.29786
 Alpha virt. eigenvalues --    0.30438   0.30530   0.30944   0.31126   0.31292
 Alpha virt. eigenvalues --    0.31579   0.31841   0.32031   0.33172   0.33208
 Alpha virt. eigenvalues --    0.34179   0.34260   0.34868   0.34965   0.35604
 Alpha virt. eigenvalues --    0.35871   0.36325   0.36510   0.37006   0.37981
 Alpha virt. eigenvalues --    0.37994   0.39386   0.39860   0.39899   0.40255
 Alpha virt. eigenvalues --    0.40941   0.41675   0.42258   0.43178   0.43560
 Alpha virt. eigenvalues --    0.45225   0.45952   0.46837   0.47873   0.48206
 Alpha virt. eigenvalues --    0.49541   0.50011   0.50165   0.50797   0.52297
 Alpha virt. eigenvalues --    0.52391   0.53107   0.54339   0.55610   0.56821
 Alpha virt. eigenvalues --    0.57520   0.57716   0.58486   0.58657   0.60458
 Alpha virt. eigenvalues --    0.61417   0.61962   0.62315   0.62982   0.64805
 Alpha virt. eigenvalues --    0.65311   0.65400   0.65797   0.66356   0.66716
 Alpha virt. eigenvalues --    0.67169   0.68944   0.69491   0.69630   0.70924
 Alpha virt. eigenvalues --    0.71571   0.71681   0.72149   0.72191   0.73171
 Alpha virt. eigenvalues --    0.75174   0.75499   0.76426   0.77171   0.78632
 Alpha virt. eigenvalues --    0.79711   0.80128   0.81182   0.82214   0.82997
 Alpha virt. eigenvalues --    0.84604   0.85103   0.85849   0.86094   0.87070
 Alpha virt. eigenvalues --    0.87179   0.87922   0.88724   0.90114   0.91190
 Alpha virt. eigenvalues --    0.92221   0.92695   0.94272   0.95467   0.96458
 Alpha virt. eigenvalues --    0.96815   0.97009   0.97870   0.98207   0.99783
 Alpha virt. eigenvalues --    1.00097   1.01539   1.03131   1.03600   1.04110
 Alpha virt. eigenvalues --    1.04777   1.05231   1.05965   1.06538   1.07379
 Alpha virt. eigenvalues --    1.07801   1.09866   1.10394   1.11041   1.12438
 Alpha virt. eigenvalues --    1.12757   1.13125   1.14155   1.14235   1.15894
 Alpha virt. eigenvalues --    1.17929   1.18176   1.20050   1.20362   1.21253
 Alpha virt. eigenvalues --    1.21806   1.23855   1.25495   1.26159   1.27210
 Alpha virt. eigenvalues --    1.29167   1.30311   1.34441   1.34467   1.36255
 Alpha virt. eigenvalues --    1.38999   1.40875   1.42397   1.42645   1.45457
 Alpha virt. eigenvalues --    1.47753   1.50759   1.51602   1.53662   1.54022
 Alpha virt. eigenvalues --    1.55105   1.57078   1.57963   1.59720   1.60882
 Alpha virt. eigenvalues --    1.62215   1.63605   1.63763   1.64156   1.64204
 Alpha virt. eigenvalues --    1.64617   1.64962   1.65594   1.66829   1.67832
 Alpha virt. eigenvalues --    1.68146   1.69158   1.70060   1.74578   1.75226
 Alpha virt. eigenvalues --    1.75620   1.77408   1.78428   1.78806   1.79997
 Alpha virt. eigenvalues --    1.80468   1.81911   1.82865   1.84139   1.87093
 Alpha virt. eigenvalues --    1.87835   1.88619   1.88948   1.92852   1.92920
 Alpha virt. eigenvalues --    1.95181   1.97913   1.98189   1.98890   1.99333
 Alpha virt. eigenvalues --    1.99876   2.01495   2.03780   2.04315   2.04787
 Alpha virt. eigenvalues --    2.05628   2.07616   2.08850   2.09974   2.10417
 Alpha virt. eigenvalues --    2.11643   2.13298   2.13698   2.15169   2.15321
 Alpha virt. eigenvalues --    2.15810   2.18947   2.21533   2.23665   2.27683
 Alpha virt. eigenvalues --    2.28245   2.29822   2.31385   2.34257   2.34467
 Alpha virt. eigenvalues --    2.39563   2.41045   2.41900   2.46057   2.46553
 Alpha virt. eigenvalues --    2.47421   2.50617   2.51580   2.54924   2.55979
 Alpha virt. eigenvalues --    2.56229   2.56678   2.57371   2.59393   2.60192
 Alpha virt. eigenvalues --    2.61264   2.62336   2.65982   2.66281   2.67134
 Alpha virt. eigenvalues --    2.68622   2.70260   2.70834   2.72394   2.73584
 Alpha virt. eigenvalues --    2.75069   2.76494   2.79119   2.80030   2.80689
 Alpha virt. eigenvalues --    2.83474   2.84206   2.84646   2.85039   2.85397
 Alpha virt. eigenvalues --    2.85570   2.86663   2.87014   2.89265   2.90208
 Alpha virt. eigenvalues --    2.92045   2.94180   2.95180   2.96537   2.97928
 Alpha virt. eigenvalues --    2.98084   2.99421   3.01408   3.03415   3.03446
 Alpha virt. eigenvalues --    3.05344   3.10400   3.13111   3.15659   3.19824
 Alpha virt. eigenvalues --    3.23558   3.26748   3.29348   3.31562   3.33596
 Alpha virt. eigenvalues --    3.36823   3.39065   3.39945   3.43339   3.44555
 Alpha virt. eigenvalues --    3.46362   3.48570   3.52300   3.58179   3.60294
 Alpha virt. eigenvalues --    3.62398   3.69828   3.77357   3.78867   3.81955
 Alpha virt. eigenvalues --    3.86602   3.87672   3.88088   3.88802   3.90410
 Alpha virt. eigenvalues --    3.92471   3.94527   3.95612   4.00586   4.08583
 Alpha virt. eigenvalues --    4.11096   4.12777   4.24526   4.28001   4.28858
 Alpha virt. eigenvalues --    4.35589   4.53510   4.58127   4.62961   4.83722
 Alpha virt. eigenvalues --    4.92728   4.97004   5.08395   5.11302   5.20539
 Alpha virt. eigenvalues --    5.27397   5.56898   5.84884   6.35206   8.12237
 Alpha virt. eigenvalues --   17.42313  17.63709  17.66748  23.70237  23.75874
 Alpha virt. eigenvalues --   23.92520  24.05502  24.06009  24.08043  24.09824
 Alpha virt. eigenvalues --   24.14749  24.18051  24.22954  24.29228  24.30094
 Alpha virt. eigenvalues --   35.52219  35.66010  35.81877  50.02157  50.12947
 Alpha virt. eigenvalues --  189.37971
          Condensed to atoms (all electrons):
               1          2          3          4          5          6
     1  N    7.386022  -0.162990   0.006953  -0.549305   0.021839  -0.221780
     2  N   -0.162990   7.456382   0.013954   0.018034   0.042504   0.301532
     3  C    0.006953   0.013954  22.613127 -12.247853   3.823417   2.579424
     4  C   -0.549305   0.018034 -12.247853  24.233769  -3.105356   0.846378
     5  S    0.021839   0.042504   3.823417  -3.105356  17.727235   0.807735
     6  C   -0.221780   0.301532   2.579424   0.846378   0.807735  11.590396
     7  C    0.629426  -0.511197  -5.760379  -3.687553  -1.186405  -7.266345
     8  H    0.004679  -0.005775  -0.007847  -0.061526   0.003746   0.005474
     9  C   -0.028565   0.046666  -0.809336   0.546517  -0.596725  -1.377370
    10  H    0.000023   0.000050   0.009311   0.000975   0.005197   0.051813
    11  H    0.000062  -0.000245   0.034215  -0.012936  -0.005904  -0.176576
    12  H    0.000023   0.000050   0.009311   0.000977   0.005194   0.051808
    13  C    0.021072  -0.171909  -2.414545  -0.999523  -1.197670  -1.003892
    14  H    0.001951   0.003413  -0.086715   0.091778   0.012668   0.010288
    15  H   -0.002290  -0.001056   0.180839  -0.185743  -0.009481  -0.001398
    16  H    0.001951   0.003413  -0.086719   0.091797   0.012669   0.010291
    17  C   -0.587721   0.467704  -0.349587  -0.249355   0.096125  -0.207913
    18  C   -0.666062   0.741638   0.261825  -1.067408   0.003072   0.057800
    19  C    0.498514  -0.416104  -0.111829   0.238736  -0.003533   0.051866
    20  C    0.028183  -0.010082  -0.008549  -0.084826   0.001823  -0.000545
    21  C    0.339946  -0.394137   0.076055   0.156451  -0.004002  -0.050150
    22  C    0.236821  -0.452790   0.090227   0.461176  -0.012106   0.012240
    23  H    0.000348  -0.001453   0.005271   0.001183  -0.000004  -0.000609
    24  H   -0.000736   0.000699   0.000190   0.000008  -0.000001   0.000028
    25  N   -0.002359   0.000907   0.001955  -0.000067  -0.000022  -0.000016
    26  O   -0.000480  -0.000056   0.000372  -0.000074  -0.000001  -0.000004
    27  O   -0.000529   0.000217   0.000069  -0.000043  -0.000000   0.000007
    28  H    0.000789  -0.000253   0.000742   0.000209  -0.000003   0.000018
    29  H    0.009534  -0.008874  -0.001190   0.001948  -0.000739   0.000876
               7          8          9         10         11         12
     1  N    0.629426   0.004679  -0.028565   0.000023   0.000062   0.000023
     2  N   -0.511197  -0.005775   0.046666   0.000050  -0.000245   0.000050
     3  C   -5.760379  -0.007847  -0.809336   0.009311   0.034215   0.009311
     4  C   -3.687553  -0.061526   0.546517   0.000975  -0.012936   0.000977
     5  S   -1.186405   0.003746  -0.596725   0.005197  -0.005904   0.005194
     6  C   -7.266345   0.005474  -1.377370   0.051813  -0.176576   0.051808
     7  C   21.123729   0.446405   0.000883  -0.090117   0.136813  -0.090110
     8  H    0.446405   0.446146  -0.028936   0.000148   0.000087   0.000148
     9  C    0.000883  -0.028936   7.396491   0.389174   0.396524   0.389172
    10  H   -0.090117   0.000148   0.389174   0.492484  -0.019714  -0.030219
    11  H    0.136813   0.000087   0.396524  -0.019714   0.483815  -0.019714
    12  H   -0.090110   0.000148   0.389172  -0.030219  -0.019714   0.492482
    13  C    2.037522   0.000679  -0.072247  -0.000755  -0.001019  -0.000755
    14  H   -0.015583   0.000007   0.000838  -0.000006   0.000000   0.000002
    15  H    0.000749   0.000012  -0.001157   0.000000  -0.000001   0.000000
    16  H   -0.015588   0.000007   0.000838   0.000002   0.000000  -0.000006
    17  C    0.484109   0.010836  -0.017799  -0.000082   0.000398  -0.000082
    18  C    0.687836   0.001191   0.003793   0.000031   0.000008   0.000031
    19  C   -0.273250   0.000049  -0.002767   0.000002  -0.000008   0.000002
    20  C    0.035704   0.000198   0.000002  -0.000000   0.000002  -0.000000
    21  C   -0.094017  -0.000845  -0.000122  -0.000001  -0.000013  -0.000001
    22  C   -0.523157  -0.006064  -0.002283   0.000004  -0.000160   0.000004
    23  H   -0.001568  -0.000010   0.000023   0.000000  -0.000000   0.000000
    24  H    0.000059  -0.000000   0.000001   0.000000   0.000000   0.000000
    25  N   -0.000353  -0.000001  -0.000001   0.000000  -0.000000   0.000000
    26  O    0.000017  -0.000000   0.000000   0.000000  -0.000000   0.000000
    27  O    0.000046  -0.000000  -0.000000   0.000000   0.000000   0.000000
    28  H   -0.000071   0.000000   0.000001  -0.000000   0.000000  -0.000000
    29  H    0.000653   0.000005   0.000067   0.000000  -0.000000   0.000000
              13         14         15         16         17         18
     1  N    0.021072   0.001951  -0.002290   0.001951  -0.587721  -0.666062
     2  N   -0.171909   0.003413  -0.001056   0.003413   0.467704   0.741638
     3  C   -2.414545  -0.086715   0.180839  -0.086719  -0.349587   0.261825
     4  C   -0.999523   0.091778  -0.185743   0.091797  -0.249355  -1.067408
     5  S   -1.197670   0.012668  -0.009481   0.012669   0.096125   0.003072
     6  C   -1.003892   0.010288  -0.001398   0.010291  -0.207913   0.057800
     7  C    2.037522  -0.015583   0.000749  -0.015588   0.484109   0.687836
     8  H    0.000679   0.000007   0.000012   0.000007   0.010836   0.001191
     9  C   -0.072247   0.000838  -0.001157   0.000838  -0.017799   0.003793
    10  H   -0.000755  -0.000006   0.000000   0.000002  -0.000082   0.000031
    11  H   -0.001019   0.000000  -0.000001   0.000000   0.000398   0.000008
    12  H   -0.000755   0.000002   0.000000  -0.000006  -0.000082   0.000031
    13  C    9.009949   0.347162   0.393943   0.347150   0.005495  -0.032798
    14  H    0.347162   0.485880  -0.019370  -0.031469   0.000412   0.000023
    15  H    0.393943  -0.019370   0.466656  -0.019368  -0.009190   0.008306
    16  H    0.347150  -0.031469  -0.019368   0.485876   0.000412   0.000023
    17  C    0.005495   0.000412  -0.009190   0.000412   9.987218   0.764682
    18  C   -0.032798   0.000023   0.008306   0.000023   0.764682  19.770428
    19  C   -0.061842   0.000320   0.000191   0.000320  -0.882415 -10.813524
    20  C   -0.000128  -0.000015  -0.000118  -0.000015  -1.521553  -1.466901
    21  C    0.015116   0.000029  -0.000794   0.000029  -1.621959  -0.614208
    22  C   -0.029776   0.000302  -0.001287   0.000302  -0.138002  -2.515919
    23  H    0.000094   0.000000  -0.000000   0.000000  -0.042196  -0.034986
    24  H   -0.000001  -0.000000   0.000000  -0.000000   0.018324   0.016271
    25  N    0.000112   0.000000  -0.000000   0.000000   0.033319  -0.148377
    26  O    0.000036  -0.000000  -0.000000  -0.000000   0.046745   0.387091
    27  O    0.000000   0.000000   0.000000   0.000000   0.038273   0.035303
    28  H   -0.000041   0.000000  -0.000003   0.000000  -0.004924  -0.041080
    29  H    0.004454  -0.000014   0.000863  -0.000014   0.007433   0.410235
              19         20         21         22         23         24
     1  N    0.498514   0.028183   0.339946   0.236821   0.000348  -0.000736
     2  N   -0.416104  -0.010082  -0.394137  -0.452790  -0.001453   0.000699
     3  C   -0.111829  -0.008549   0.076055   0.090227   0.005271   0.000190
     4  C    0.238736  -0.084826   0.156451   0.461176   0.001183   0.000008
     5  S   -0.003533   0.001823  -0.004002  -0.012106  -0.000004  -0.000001
     6  C    0.051866  -0.000545  -0.050150   0.012240  -0.000609   0.000028
     7  C   -0.273250   0.035704  -0.094017  -0.523157  -0.001568   0.000059
     8  H    0.000049   0.000198  -0.000845  -0.006064  -0.000010  -0.000000
     9  C   -0.002767   0.000002  -0.000122  -0.002283   0.000023   0.000001
    10  H    0.000002  -0.000000  -0.000001   0.000004   0.000000   0.000000
    11  H   -0.000008   0.000002  -0.000013  -0.000160  -0.000000   0.000000
    12  H    0.000002  -0.000000  -0.000001   0.000004   0.000000   0.000000
    13  C   -0.061842  -0.000128   0.015116  -0.029776   0.000094  -0.000001
    14  H    0.000320  -0.000015   0.000029   0.000302   0.000000  -0.000000
    15  H    0.000191  -0.000118  -0.000794  -0.001287  -0.000000   0.000000
    16  H    0.000320  -0.000015   0.000029   0.000302   0.000000  -0.000000
    17  C   -0.882415  -1.521553  -1.621959  -0.138002  -0.042196   0.018324
    18  C  -10.813524  -1.466901  -0.614208  -2.515919  -0.034986   0.016271
    19  C   19.589088   0.106107  -2.244046   0.280139   0.003579  -0.040812
    20  C    0.106107  10.602642   0.697619  -1.125560   0.013261   0.023519
    21  C   -2.244046   0.697619  11.266103  -1.928181   0.031983   0.431101
    22  C    0.280139  -1.125560  -1.928181  11.359069   0.393481  -0.066112
    23  H    0.003579   0.013261   0.031983   0.393481   0.443370  -0.004159
    24  H   -0.040812   0.023519   0.431101  -0.066112  -0.004159   0.434240
    25  N    0.192322  -0.445543  -0.045863  -0.016733  -0.000682  -0.023446
    26  O   -0.015087  -0.543060   0.054612  -0.054267   0.000021  -0.000854
    27  O   -0.076257  -0.513874   0.144588   0.239777   0.000026   0.008324
    28  H    0.432637   0.024948  -0.015830  -0.014300   0.000009   0.000009
    29  H   -0.066731   0.001518   0.004896   0.002404   0.000023   0.000011
              25         26         27         28         29
     1  N   -0.002359  -0.000480  -0.000529   0.000789   0.009534
     2  N    0.000907  -0.000056   0.000217  -0.000253  -0.008874
     3  C    0.001955   0.000372   0.000069   0.000742  -0.001190
     4  C   -0.000067  -0.000074  -0.000043   0.000209   0.001948
     5  S   -0.000022  -0.000001  -0.000000  -0.000003  -0.000739
     6  C   -0.000016  -0.000004   0.000007   0.000018   0.000876
     7  C   -0.000353   0.000017   0.000046  -0.000071   0.000653
     8  H   -0.000001  -0.000000  -0.000000   0.000000   0.000005
     9  C   -0.000001   0.000000  -0.000000   0.000001   0.000067
    10  H    0.000000   0.000000   0.000000  -0.000000   0.000000
    11  H   -0.000000  -0.000000   0.000000   0.000000  -0.000000
    12  H    0.000000   0.000000   0.000000  -0.000000   0.000000
    13  C    0.000112   0.000036   0.000000  -0.000041   0.004454
    14  H    0.000000  -0.000000   0.000000   0.000000  -0.000014
    15  H   -0.000000  -0.000000   0.000000  -0.000003   0.000863
    16  H    0.000000  -0.000000   0.000000   0.000000  -0.000014
    17  C    0.033319   0.046745   0.038273  -0.004924   0.007433
    18  C   -0.148377   0.387091   0.035303  -0.041080   0.410235
    19  C    0.192322  -0.015087  -0.076257   0.432637  -0.066731
    20  C   -0.445543  -0.543060  -0.513874   0.024948   0.001518
    21  C   -0.045863   0.054612   0.144588  -0.015830   0.004896
    22  C   -0.016733  -0.054267   0.239777  -0.014300   0.002404
    23  H   -0.000682   0.000021   0.000026   0.000009   0.000023
    24  H   -0.023446  -0.000854   0.008324   0.000009   0.000011
    25  N    7.111935   0.260974   0.279917  -0.025645  -0.000967
    26  O    0.260974   7.942865  -0.028267   0.010631  -0.000077
    27  O    0.279917  -0.028267   7.929375  -0.000878   0.000006
    28  H   -0.025645   0.010631  -0.000878   0.433963  -0.004024
    29  H   -0.000967  -0.000077   0.000006  -0.004024   0.435193
 Mulliken charges:
               1
     1  N    0.034680
     2  N    0.039757
     3  C   -1.822706
     4  C    1.561633
     5  S   -0.441272
     6  C   -0.071375
     7  C   -0.068257
     8  H    0.191185
     9  C   -0.233679
    10  H    0.191680
    11  H    0.184366
    12  H    0.191681
    13  C   -0.195881
    14  H    0.198097
    15  H    0.199697
    16  H    0.198099
    17  C   -0.328708
    18  C    0.251674
    19  C   -0.385669
    20  C    0.185242
    21  C   -0.204357
    22  C   -0.189249
    23  H    0.192994
    24  H    0.203339
    25  N   -0.171365
    26  O   -0.061137
    27  O   -0.056079
    28  H    0.203098
    29  H    0.202511
 Sum of Mulliken charges =  -0.00000
 Mulliken charges with hydrogens summed into heavy atoms:
               1
     1  N    0.034680
     2  N    0.039757
     3  C   -1.822706
     4  C    1.561633
     5  S   -0.441272
     6  C   -0.071375
     7  C    0.122928
     9  C    0.334048
    13  C    0.400013
    17  C   -0.328708
    18  C    0.454185
    19  C   -0.182570
    20  C    0.185242
    21  C   -0.001019
    22  C    0.003745
    25  N   -0.171365
    26  O   -0.061137
    27  O   -0.056079
 Electronic spatial extent (au):  <R**2>=           8374.3008
 Charge=             -0.0000 electrons
 Dipole moment (field-independent basis, Debye):
    X=              8.5761    Y=             -0.0970    Z=              0.0000  Tot=              8.5767
 Quadrupole moment (field-independent basis, Debye-Ang):
   XX=           -141.5576   YY=            -97.8485   ZZ=           -113.4793
   XY=              0.7824   XZ=             -0.0002   YZ=             -0.0001
 Traceless Quadrupole moment (field-independent basis, Debye-Ang):
   XX=            -23.9292   YY=             19.7799   ZZ=              4.1492
   XY=              0.7824   XZ=             -0.0002   YZ=             -0.0001
 Octapole moment (field-independent basis, Debye-Ang**2):
  XXX=            422.1089  YYY=              2.1654  ZZZ=             -0.0003  XYY=             23.3941
  XXY=            -41.2480  XXZ=              0.0025  XZZ=            -14.8661  YZZ=              3.7109
  YYZ=              0.0002  XYZ=             -0.0003
 Hexadecapole moment (field-independent basis, Debye-Ang**3):
 XXXX=         -11728.5400 YYYY=          -1079.9590 ZZZZ=           -137.0189 XXXY=           -121.0036
 XXXZ=             -0.0267 YYYX=             35.8900 YYYZ=              0.0041 ZZZX=             -0.0178
 ZZZY=              0.0050 XXYY=          -1742.8946 XXZZ=          -1637.9277 YYZZ=           -226.3847
 XXYZ=             -0.0001 YYXZ=             -0.0060 ZZXY=              1.1154
 N-N= 1.285238409010D+03 E-N=-5.331919949562D+03  KE= 1.173059364904D+03
 1\1\GINC-C0197\SP\RwB97XD-FC\6-311+G(d,p)\C12H11N3O2S1\ADRION.D\23-Aug
 -2021\0\\# wB97XD/6-311+G(d,p) td=(Nstates=10) scrf=(iefpcm,solvent=wa
 ter) formcheck 5-td\\5-td\\0,1\N,0,-0.18764,-0.66879,-0.00001\N,0,-0.9
 1296,0.36264,0.\C,0,-2.2724,0.12758,-0.00001\C,0,-3.13732,1.21328,0.\S
 ,0,-4.76708,0.66393,-0.00001\C,0,-4.29736,-1.02481,-0.00003\C,0,-2.944
 22,-1.14441,-0.00002\H,0,-2.42373,-2.09415,-0.00003\C,0,-5.33357,-2.09
 629,-0.00004\H,0,-5.97729,-2.03369,0.88345\H,0,-4.84663,-3.07427,-0.00
 004\H,0,-5.97728,-2.03368,-0.88353\C,0,-2.79238,2.66016,0.00001\H,0,-3
 .19787,3.1644,0.88318\H,0,-1.70699,2.77303,0.00002\H,0,-3.19787,3.1644
 2,-0.88314\C,0,1.19537,-0.39765,0.\C,0,1.753,0.89225,0.00002\C,0,3.127
 08,1.04896,0.00002\C,0,3.93741,-0.08833,0.00001\C,0,3.40809,-1.37606,0
 .\C,0,2.02947,-1.523,-0.00001\H,0,1.57748,-2.50948,-0.00002\H,0,4.0673
 6,-2.23546,-0.00001\N,0,5.38006,0.07809,0.00002\O,0,5.83115,1.21795,0.
 00003\O,0,6.07918,-0.9288,0.00002\H,0,3.5799,2.03324,0.00003\H,0,1.098
 42,1.75593,0.00002\\Version=ES64L-G16RevB.01\State=1-A\HF=-1176.605770
 4\RMSD=3.807e-09\PG=C01 [X(C12H11N3O2S1)]\\@


 A MAN SHOULD NEVER BE ASHAMED TO OWN HE HAS BEEN IN THE WRONG
 WHICH IS BUT SAYING IN OTHER WORDS,
 THAT HE IS WISER TODAY THAN HE WAS YESTERDAY.

                          -- JONATHAN SWIFT
 FChkPn:  Coordinates translated and rotated.
 FChkPn:  Coordinates match /B/ after translation and rotation.
 Job cpu time:       0 days  4 hours 20 minutes 43.9 seconds.
 Elapsed time:       0 days  0 hours 18 minutes  0.2 seconds.
 File lengths (MBytes):  RWF=   1936 Int=      0 D2E=      0 Chk=    160 Scr=     32
 Normal termination of Gaussian 16 at Mon Aug 23 10:45:05 2021.
